Title: ** sch_path: /home/ttuser/tt10-foldedcascode/xschem/ecg_pwl.sch
Date: Tue Dec 30 15:16:47  2025
Plotname: Transient Analysis
Flags: real
No. Variables: 1845
No. Points: 3
Variables:
	0	time	time
	1	i(@b.x1.xr1.xsky130_fd_pr__res_xhigh_po_0p35.brbody[i])	current
	2	i(@b.x1.xr1.xsky130_fd_pr__res_xhigh_po_0p35.brend[i])	current
	3	i(@b.x1.xr2.xsky130_fd_pr__res_xhigh_po_0p35.brbody[i])	current
	4	i(@b.x1.xr2.xsky130_fd_pr__res_xhigh_po_0p35.brend[i])	current
	5	i(@b.x1.xr3.xsky130_fd_pr__res_xhigh_po_0p35.brbody[i])	current
	6	i(@b.x1.xr3.xsky130_fd_pr__res_xhigh_po_0p35.brend[i])	current
	7	i(@b.x1.xr4.xsky130_fd_pr__res_xhigh_po_0p35.brbody[i])	current
	8	i(@b.x1.xr4.xsky130_fd_pr__res_xhigh_po_0p35.brend[i])	current
	9	i(@b.x1.xr5.xsky130_fd_pr__res_xhigh_po_0p35.brbody[i])	current
	10	i(@b.x1.xr5.xsky130_fd_pr__res_xhigh_po_0p35.brend[i])	current
	11	i(@b.x1.xr6.xsky130_fd_pr__res_xhigh_po_0p35.brbody[i])	current
	12	i(@b.x1.xr6.xsky130_fd_pr__res_xhigh_po_0p35.brend[i])	current
	13	i(@b.x1.xr7.xsky130_fd_pr__res_xhigh_po_0p35.brbody[i])	current
	14	i(@b.x1.xr7.xsky130_fd_pr__res_xhigh_po_0p35.brend[i])	current
	15	i(@b.x1.xr8.xsky130_fd_pr__res_xhigh_po_0p35.brbody[i])	current
	16	i(@b.x1.xr8.xsky130_fd_pr__res_xhigh_po_0p35.brend[i])	current
	17	i(@b.x2.xr1.xsky130_fd_pr__res_xhigh_po_0p35.brbody[i])	current
	18	i(@b.x2.xr1.xsky130_fd_pr__res_xhigh_po_0p35.brend[i])	current
	19	i(@b.x2.xr2.xsky130_fd_pr__res_xhigh_po_0p35.brbody[i])	current
	20	i(@b.x2.xr2.xsky130_fd_pr__res_xhigh_po_0p35.brend[i])	current
	21	i(@b.x2.xr3.xsky130_fd_pr__res_xhigh_po_0p35.brbody[i])	current
	22	i(@b.x2.xr3.xsky130_fd_pr__res_xhigh_po_0p35.brend[i])	current
	23	i(@b.x2.xr4.xsky130_fd_pr__res_xhigh_po_0p35.brbody[i])	current
	24	i(@b.x2.xr4.xsky130_fd_pr__res_xhigh_po_0p35.brend[i])	current
	25	i(@b.x2.xr5.xsky130_fd_pr__res_xhigh_po_0p35.brbody[i])	current
	26	i(@b.x2.xr5.xsky130_fd_pr__res_xhigh_po_0p35.brend[i])	current
	27	i(@b.x2.xr6.xsky130_fd_pr__res_xhigh_po_0p35.brbody[i])	current
	28	i(@b.x2.xr6.xsky130_fd_pr__res_xhigh_po_0p35.brend[i])	current
	29	i(@b.x2.xr7.xsky130_fd_pr__res_xhigh_po_0p35.brbody[i])	current
	30	i(@b.x2.xr7.xsky130_fd_pr__res_xhigh_po_0p35.brend[i])	current
	31	i(@b.x2.xr8.xsky130_fd_pr__res_xhigh_po_0p35.brbody[i])	current
	32	i(@b.x2.xr8.xsky130_fd_pr__res_xhigh_po_0p35.brend[i])	current
	33	i(@b.x3.xr1.xsky130_fd_pr__res_xhigh_po_0p35.brbody[i])	current
	34	i(@b.x3.xr1.xsky130_fd_pr__res_xhigh_po_0p35.brend[i])	current
	35	i(@b.x3.xr2.xsky130_fd_pr__res_xhigh_po_0p35.brbody[i])	current
	36	i(@b.x3.xr2.xsky130_fd_pr__res_xhigh_po_0p35.brend[i])	current
	37	i(@b.x3.xr3.xsky130_fd_pr__res_xhigh_po_0p35.brbody[i])	current
	38	i(@b.x3.xr3.xsky130_fd_pr__res_xhigh_po_0p35.brend[i])	current
	39	i(@b.x3.xr4.xsky130_fd_pr__res_xhigh_po_0p35.brbody[i])	current
	40	i(@b.x3.xr4.xsky130_fd_pr__res_xhigh_po_0p35.brend[i])	current
	41	i(@b.x3.xr5.xsky130_fd_pr__res_xhigh_po_0p35.brbody[i])	current
	42	i(@b.x3.xr5.xsky130_fd_pr__res_xhigh_po_0p35.brend[i])	current
	43	i(@b.x3.xr6.xsky130_fd_pr__res_xhigh_po_0p35.brbody[i])	current
	44	i(@b.x3.xr6.xsky130_fd_pr__res_xhigh_po_0p35.brend[i])	current
	45	i(@b.x3.xr7.xsky130_fd_pr__res_xhigh_po_0p35.brbody[i])	current
	46	i(@b.x3.xr7.xsky130_fd_pr__res_xhigh_po_0p35.brend[i])	current
	47	i(@b.x3.xr8.xsky130_fd_pr__res_xhigh_po_0p35.brbody[i])	current
	48	i(@b.x3.xr8.xsky130_fd_pr__res_xhigh_po_0p35.brend[i])	current
	49	i(@b.x4.xr1.xsky130_fd_pr__res_xhigh_po_0p35.brbody[i])	current
	50	i(@b.x4.xr1.xsky130_fd_pr__res_xhigh_po_0p35.brend[i])	current
	51	i(@b.x4.xr2.xsky130_fd_pr__res_xhigh_po_0p35.brbody[i])	current
	52	i(@b.x4.xr2.xsky130_fd_pr__res_xhigh_po_0p35.brend[i])	current
	53	i(@b.x4.xr3.xsky130_fd_pr__res_xhigh_po_0p35.brbody[i])	current
	54	i(@b.x4.xr3.xsky130_fd_pr__res_xhigh_po_0p35.brend[i])	current
	55	i(@b.x4.xr4.xsky130_fd_pr__res_xhigh_po_0p35.brbody[i])	current
	56	i(@b.x4.xr4.xsky130_fd_pr__res_xhigh_po_0p35.brend[i])	current
	57	i(@b.x4.xr5.xsky130_fd_pr__res_xhigh_po_0p35.brbody[i])	current
	58	i(@b.x4.xr5.xsky130_fd_pr__res_xhigh_po_0p35.brend[i])	current
	59	i(@b.x4.xr6.xsky130_fd_pr__res_xhigh_po_0p35.brbody[i])	current
	60	i(@b.x4.xr6.xsky130_fd_pr__res_xhigh_po_0p35.brend[i])	current
	61	i(@b.x4.xr7.xsky130_fd_pr__res_xhigh_po_0p35.brbody[i])	current
	62	i(@b.x4.xr7.xsky130_fd_pr__res_xhigh_po_0p35.brend[i])	current
	63	i(@b.x4.xr8.xsky130_fd_pr__res_xhigh_po_0p35.brbody[i])	current
	64	i(@b.x4.xr8.xsky130_fd_pr__res_xhigh_po_0p35.brend[i])	current
	65	i(@b.x5.xr1.xsky130_fd_pr__res_xhigh_po_0p35.brbody[i])	current
	66	i(@b.x5.xr1.xsky130_fd_pr__res_xhigh_po_0p35.brend[i])	current
	67	i(@b.x5.xr2.xsky130_fd_pr__res_xhigh_po_0p35.brbody[i])	current
	68	i(@b.x5.xr2.xsky130_fd_pr__res_xhigh_po_0p35.brend[i])	current
	69	i(@b.x5.xr3.xsky130_fd_pr__res_xhigh_po_0p35.brbody[i])	current
	70	i(@b.x5.xr3.xsky130_fd_pr__res_xhigh_po_0p35.brend[i])	current
	71	i(@b.x5.xr4.xsky130_fd_pr__res_xhigh_po_0p35.brbody[i])	current
	72	i(@b.x5.xr4.xsky130_fd_pr__res_xhigh_po_0p35.brend[i])	current
	73	i(@b.x5.xr5.xsky130_fd_pr__res_xhigh_po_0p35.brbody[i])	current
	74	i(@b.x5.xr5.xsky130_fd_pr__res_xhigh_po_0p35.brend[i])	current
	75	i(@b.x5.xr6.xsky130_fd_pr__res_xhigh_po_0p35.brbody[i])	current
	76	i(@b.x5.xr6.xsky130_fd_pr__res_xhigh_po_0p35.brend[i])	current
	77	i(@b.x5.xr7.xsky130_fd_pr__res_xhigh_po_0p35.brbody[i])	current
	78	i(@b.x5.xr7.xsky130_fd_pr__res_xhigh_po_0p35.brend[i])	current
	79	i(@b.x5.xr8.xsky130_fd_pr__res_xhigh_po_0p35.brbody[i])	current
	80	i(@b.x5.xr8.xsky130_fd_pr__res_xhigh_po_0p35.brend[i])	current
	81	i(@b.x6.xr1.xsky130_fd_pr__res_xhigh_po_0p35.brbody[i])	current
	82	i(@b.x6.xr1.xsky130_fd_pr__res_xhigh_po_0p35.brend[i])	current
	83	i(@b.x6.xr2.xsky130_fd_pr__res_xhigh_po_0p35.brbody[i])	current
	84	i(@b.x6.xr2.xsky130_fd_pr__res_xhigh_po_0p35.brend[i])	current
	85	i(@b.x6.xr3.xsky130_fd_pr__res_xhigh_po_0p35.brbody[i])	current
	86	i(@b.x6.xr3.xsky130_fd_pr__res_xhigh_po_0p35.brend[i])	current
	87	i(@b.x6.xr4.xsky130_fd_pr__res_xhigh_po_0p35.brbody[i])	current
	88	i(@b.x6.xr4.xsky130_fd_pr__res_xhigh_po_0p35.brend[i])	current
	89	i(@b.x6.xr5.xsky130_fd_pr__res_xhigh_po_0p35.brbody[i])	current
	90	i(@b.x6.xr5.xsky130_fd_pr__res_xhigh_po_0p35.brend[i])	current
	91	i(@b.x6.xr6.xsky130_fd_pr__res_xhigh_po_0p35.brbody[i])	current
	92	i(@b.x6.xr6.xsky130_fd_pr__res_xhigh_po_0p35.brend[i])	current
	93	i(@b.x6.xr7.xsky130_fd_pr__res_xhigh_po_0p35.brbody[i])	current
	94	i(@b.x6.xr7.xsky130_fd_pr__res_xhigh_po_0p35.brend[i])	current
	95	i(@b.x6.xr8.xsky130_fd_pr__res_xhigh_po_0p35.brbody[i])	current
	96	i(@b.x6.xr8.xsky130_fd_pr__res_xhigh_po_0p35.brend[i])	current
	97	i(@b.x7.xr1.xsky130_fd_pr__res_xhigh_po_0p35.brbody[i])	current
	98	i(@b.x7.xr1.xsky130_fd_pr__res_xhigh_po_0p35.brend[i])	current
	99	i(@b.x7.xr2.xsky130_fd_pr__res_xhigh_po_0p35.brbody[i])	current
	100	i(@b.x7.xr2.xsky130_fd_pr__res_xhigh_po_0p35.brend[i])	current
	101	i(@b.x7.xr3.xsky130_fd_pr__res_xhigh_po_0p35.brbody[i])	current
	102	i(@b.x7.xr3.xsky130_fd_pr__res_xhigh_po_0p35.brend[i])	current
	103	i(@b.x7.xr4.xsky130_fd_pr__res_xhigh_po_0p35.brbody[i])	current
	104	i(@b.x7.xr4.xsky130_fd_pr__res_xhigh_po_0p35.brend[i])	current
	105	i(@b.x7.xr5.xsky130_fd_pr__res_xhigh_po_0p35.brbody[i])	current
	106	i(@b.x7.xr5.xsky130_fd_pr__res_xhigh_po_0p35.brend[i])	current
	107	i(@b.x7.xr6.xsky130_fd_pr__res_xhigh_po_0p35.brbody[i])	current
	108	i(@b.x7.xr6.xsky130_fd_pr__res_xhigh_po_0p35.brend[i])	current
	109	i(@b.x7.xr7.xsky130_fd_pr__res_xhigh_po_0p35.brbody[i])	current
	110	i(@b.x7.xr7.xsky130_fd_pr__res_xhigh_po_0p35.brend[i])	current
	111	i(@b.x7.xr8.xsky130_fd_pr__res_xhigh_po_0p35.brbody[i])	current
	112	i(@b.x7.xr8.xsky130_fd_pr__res_xhigh_po_0p35.brend[i])	current
	113	i(@b.x8.xr1.xsky130_fd_pr__res_xhigh_po_0p35.brbody[i])	current
	114	i(@b.x8.xr1.xsky130_fd_pr__res_xhigh_po_0p35.brend[i])	current
	115	i(@b.x8.xr2.xsky130_fd_pr__res_xhigh_po_0p35.brbody[i])	current
	116	i(@b.x8.xr2.xsky130_fd_pr__res_xhigh_po_0p35.brend[i])	current
	117	i(@b.x8.xr3.xsky130_fd_pr__res_xhigh_po_0p35.brbody[i])	current
	118	i(@b.x8.xr3.xsky130_fd_pr__res_xhigh_po_0p35.brend[i])	current
	119	i(@b.x8.xr4.xsky130_fd_pr__res_xhigh_po_0p35.brbody[i])	current
	120	i(@b.x8.xr4.xsky130_fd_pr__res_xhigh_po_0p35.brend[i])	current
	121	i(@b.x8.xr5.xsky130_fd_pr__res_xhigh_po_0p35.brbody[i])	current
	122	i(@b.x8.xr5.xsky130_fd_pr__res_xhigh_po_0p35.brend[i])	current
	123	i(@b.x8.xr6.xsky130_fd_pr__res_xhigh_po_0p35.brbody[i])	current
	124	i(@b.x8.xr6.xsky130_fd_pr__res_xhigh_po_0p35.brend[i])	current
	125	i(@b.x8.xr7.xsky130_fd_pr__res_xhigh_po_0p35.brbody[i])	current
	126	i(@b.x8.xr7.xsky130_fd_pr__res_xhigh_po_0p35.brend[i])	current
	127	i(@b.x8.xr8.xsky130_fd_pr__res_xhigh_po_0p35.brbody[i])	current
	128	i(@b.x8.xr8.xsky130_fd_pr__res_xhigh_po_0p35.brend[i])	current
	129	i(@b.x9.xr1.xsky130_fd_pr__res_xhigh_po_0p35.brbody[i])	current
	130	i(@b.x9.xr1.xsky130_fd_pr__res_xhigh_po_0p35.brend[i])	current
	131	i(@b.x9.xr2.xsky130_fd_pr__res_xhigh_po_0p35.brbody[i])	current
	132	i(@b.x9.xr2.xsky130_fd_pr__res_xhigh_po_0p35.brend[i])	current
	133	i(@b.x9.xr3.xsky130_fd_pr__res_xhigh_po_0p35.brbody[i])	current
	134	i(@b.x9.xr3.xsky130_fd_pr__res_xhigh_po_0p35.brend[i])	current
	135	i(@b.x9.xr4.xsky130_fd_pr__res_xhigh_po_0p35.brbody[i])	current
	136	i(@b.x9.xr4.xsky130_fd_pr__res_xhigh_po_0p35.brend[i])	current
	137	i(@b.x9.xr5.xsky130_fd_pr__res_xhigh_po_0p35.brbody[i])	current
	138	i(@b.x9.xr5.xsky130_fd_pr__res_xhigh_po_0p35.brend[i])	current
	139	i(@b.x9.xr6.xsky130_fd_pr__res_xhigh_po_0p35.brbody[i])	current
	140	i(@b.x9.xr6.xsky130_fd_pr__res_xhigh_po_0p35.brend[i])	current
	141	i(@b.x9.xr7.xsky130_fd_pr__res_xhigh_po_0p35.brbody[i])	current
	142	i(@b.x9.xr7.xsky130_fd_pr__res_xhigh_po_0p35.brend[i])	current
	143	i(@b.x9.xr8.xsky130_fd_pr__res_xhigh_po_0p35.brbody[i])	current
	144	i(@b.x9.xr8.xsky130_fd_pr__res_xhigh_po_0p35.brend[i])	current
	145	i(@b.x10.xr1.xsky130_fd_pr__res_xhigh_po_0p35.brbody[i])	current
	146	i(@b.x10.xr1.xsky130_fd_pr__res_xhigh_po_0p35.brend[i])	current
	147	i(@b.x10.xr2.xsky130_fd_pr__res_xhigh_po_0p35.brbody[i])	current
	148	i(@b.x10.xr2.xsky130_fd_pr__res_xhigh_po_0p35.brend[i])	current
	149	i(@b.x10.xr3.xsky130_fd_pr__res_xhigh_po_0p35.brbody[i])	current
	150	i(@b.x10.xr3.xsky130_fd_pr__res_xhigh_po_0p35.brend[i])	current
	151	i(@b.x10.xr4.xsky130_fd_pr__res_xhigh_po_0p35.brbody[i])	current
	152	i(@b.x10.xr4.xsky130_fd_pr__res_xhigh_po_0p35.brend[i])	current
	153	i(@b.x10.xr5.xsky130_fd_pr__res_xhigh_po_0p35.brbody[i])	current
	154	i(@b.x10.xr5.xsky130_fd_pr__res_xhigh_po_0p35.brend[i])	current
	155	i(@b.x10.xr6.xsky130_fd_pr__res_xhigh_po_0p35.brbody[i])	current
	156	i(@b.x10.xr6.xsky130_fd_pr__res_xhigh_po_0p35.brend[i])	current
	157	i(@b.x10.xr7.xsky130_fd_pr__res_xhigh_po_0p35.brbody[i])	current
	158	i(@b.x10.xr7.xsky130_fd_pr__res_xhigh_po_0p35.brend[i])	current
	159	i(@b.x10.xr8.xsky130_fd_pr__res_xhigh_po_0p35.brbody[i])	current
	160	i(@b.x10.xr8.xsky130_fd_pr__res_xhigh_po_0p35.brend[i])	current
	161	i(@b.x11.xr1.xsky130_fd_pr__res_xhigh_po_0p35.brbody[i])	current
	162	i(@b.x11.xr1.xsky130_fd_pr__res_xhigh_po_0p35.brend[i])	current
	163	i(@b.x11.xr2.xsky130_fd_pr__res_xhigh_po_0p35.brbody[i])	current
	164	i(@b.x11.xr2.xsky130_fd_pr__res_xhigh_po_0p35.brend[i])	current
	165	i(@b.x11.xr3.xsky130_fd_pr__res_xhigh_po_0p35.brbody[i])	current
	166	i(@b.x11.xr3.xsky130_fd_pr__res_xhigh_po_0p35.brend[i])	current
	167	i(@b.x11.xr4.xsky130_fd_pr__res_xhigh_po_0p35.brbody[i])	current
	168	i(@b.x11.xr4.xsky130_fd_pr__res_xhigh_po_0p35.brend[i])	current
	169	i(@b.x11.xr5.xsky130_fd_pr__res_xhigh_po_0p35.brbody[i])	current
	170	i(@b.x11.xr5.xsky130_fd_pr__res_xhigh_po_0p35.brend[i])	current
	171	i(@b.x11.xr6.xsky130_fd_pr__res_xhigh_po_0p35.brbody[i])	current
	172	i(@b.x11.xr6.xsky130_fd_pr__res_xhigh_po_0p35.brend[i])	current
	173	i(@b.x11.xr7.xsky130_fd_pr__res_xhigh_po_0p35.brbody[i])	current
	174	i(@b.x11.xr7.xsky130_fd_pr__res_xhigh_po_0p35.brend[i])	current
	175	i(@b.x11.xr8.xsky130_fd_pr__res_xhigh_po_0p35.brbody[i])	current
	176	i(@b.x11.xr8.xsky130_fd_pr__res_xhigh_po_0p35.brend[i])	current
	177	i(@b.x12.xr1.xsky130_fd_pr__res_xhigh_po_0p35.brbody[i])	current
	178	i(@b.x12.xr1.xsky130_fd_pr__res_xhigh_po_0p35.brend[i])	current
	179	i(@b.x12.xr2.xsky130_fd_pr__res_xhigh_po_0p35.brbody[i])	current
	180	i(@b.x12.xr2.xsky130_fd_pr__res_xhigh_po_0p35.brend[i])	current
	181	i(@b.x12.xr3.xsky130_fd_pr__res_xhigh_po_0p35.brbody[i])	current
	182	i(@b.x12.xr3.xsky130_fd_pr__res_xhigh_po_0p35.brend[i])	current
	183	i(@b.x12.xr4.xsky130_fd_pr__res_xhigh_po_0p35.brbody[i])	current
	184	i(@b.x12.xr4.xsky130_fd_pr__res_xhigh_po_0p35.brend[i])	current
	185	i(@b.x12.xr5.xsky130_fd_pr__res_xhigh_po_0p35.brbody[i])	current
	186	i(@b.x12.xr5.xsky130_fd_pr__res_xhigh_po_0p35.brend[i])	current
	187	i(@b.x12.xr6.xsky130_fd_pr__res_xhigh_po_0p35.brbody[i])	current
	188	i(@b.x12.xr6.xsky130_fd_pr__res_xhigh_po_0p35.brend[i])	current
	189	i(@b.x12.xr7.xsky130_fd_pr__res_xhigh_po_0p35.brbody[i])	current
	190	i(@b.x12.xr7.xsky130_fd_pr__res_xhigh_po_0p35.brend[i])	current
	191	i(@b.x12.xr8.xsky130_fd_pr__res_xhigh_po_0p35.brbody[i])	current
	192	i(@b.x12.xr8.xsky130_fd_pr__res_xhigh_po_0p35.brend[i])	current
	193	i(@b.x13.xr1.xsky130_fd_pr__res_xhigh_po_0p35.brbody[i])	current
	194	i(@b.x13.xr1.xsky130_fd_pr__res_xhigh_po_0p35.brend[i])	current
	195	i(@b.x13.xr2.xsky130_fd_pr__res_xhigh_po_0p35.brbody[i])	current
	196	i(@b.x13.xr2.xsky130_fd_pr__res_xhigh_po_0p35.brend[i])	current
	197	i(@b.x13.xr3.xsky130_fd_pr__res_xhigh_po_0p35.brbody[i])	current
	198	i(@b.x13.xr3.xsky130_fd_pr__res_xhigh_po_0p35.brend[i])	current
	199	i(@b.x13.xr4.xsky130_fd_pr__res_xhigh_po_0p35.brbody[i])	current
	200	i(@b.x13.xr4.xsky130_fd_pr__res_xhigh_po_0p35.brend[i])	current
	201	i(@b.x13.xr5.xsky130_fd_pr__res_xhigh_po_0p35.brbody[i])	current
	202	i(@b.x13.xr5.xsky130_fd_pr__res_xhigh_po_0p35.brend[i])	current
	203	i(@b.x13.xr6.xsky130_fd_pr__res_xhigh_po_0p35.brbody[i])	current
	204	i(@b.x13.xr6.xsky130_fd_pr__res_xhigh_po_0p35.brend[i])	current
	205	i(@b.x13.xr7.xsky130_fd_pr__res_xhigh_po_0p35.brbody[i])	current
	206	i(@b.x13.xr7.xsky130_fd_pr__res_xhigh_po_0p35.brend[i])	current
	207	i(@b.x13.xr8.xsky130_fd_pr__res_xhigh_po_0p35.brbody[i])	current
	208	i(@b.x13.xr8.xsky130_fd_pr__res_xhigh_po_0p35.brend[i])	current
	209	i(@b.x14.xr1.xsky130_fd_pr__res_xhigh_po_0p35.brbody[i])	current
	210	i(@b.x14.xr1.xsky130_fd_pr__res_xhigh_po_0p35.brend[i])	current
	211	i(@b.x14.xr2.xsky130_fd_pr__res_xhigh_po_0p35.brbody[i])	current
	212	i(@b.x14.xr2.xsky130_fd_pr__res_xhigh_po_0p35.brend[i])	current
	213	i(@b.x14.xr3.xsky130_fd_pr__res_xhigh_po_0p35.brbody[i])	current
	214	i(@b.x14.xr3.xsky130_fd_pr__res_xhigh_po_0p35.brend[i])	current
	215	i(@b.x14.xr4.xsky130_fd_pr__res_xhigh_po_0p35.brbody[i])	current
	216	i(@b.x14.xr4.xsky130_fd_pr__res_xhigh_po_0p35.brend[i])	current
	217	i(@b.x14.xr5.xsky130_fd_pr__res_xhigh_po_0p35.brbody[i])	current
	218	i(@b.x14.xr5.xsky130_fd_pr__res_xhigh_po_0p35.brend[i])	current
	219	i(@b.x14.xr6.xsky130_fd_pr__res_xhigh_po_0p35.brbody[i])	current
	220	i(@b.x14.xr6.xsky130_fd_pr__res_xhigh_po_0p35.brend[i])	current
	221	i(@b.x14.xr7.xsky130_fd_pr__res_xhigh_po_0p35.brbody[i])	current
	222	i(@b.x14.xr7.xsky130_fd_pr__res_xhigh_po_0p35.brend[i])	current
	223	i(@b.x14.xr8.xsky130_fd_pr__res_xhigh_po_0p35.brbody[i])	current
	224	i(@b.x14.xr8.xsky130_fd_pr__res_xhigh_po_0p35.brend[i])	current
	225	i(@b.xr3.brend[i])	current
	226	i(@b.xr3.brhrpoly_0p35[i])	current
	227	i(@b.xr15.brend[i])	current
	228	i(@b.xr15.brhrpoly_0p35[i])	current
	229	i(@c.x1.xr1.xsky130_fd_pr__res_xhigh_po_0p35.c1[i])	current
	230	i(@c.x1.xr1.xsky130_fd_pr__res_xhigh_po_0p35.c2[i])	current
	231	i(@c.x1.xr2.xsky130_fd_pr__res_xhigh_po_0p35.c1[i])	current
	232	i(@c.x1.xr2.xsky130_fd_pr__res_xhigh_po_0p35.c2[i])	current
	233	i(@c.x1.xr3.xsky130_fd_pr__res_xhigh_po_0p35.c1[i])	current
	234	i(@c.x1.xr3.xsky130_fd_pr__res_xhigh_po_0p35.c2[i])	current
	235	i(@c.x1.xr4.xsky130_fd_pr__res_xhigh_po_0p35.c1[i])	current
	236	i(@c.x1.xr4.xsky130_fd_pr__res_xhigh_po_0p35.c2[i])	current
	237	i(@c.x1.xr5.xsky130_fd_pr__res_xhigh_po_0p35.c1[i])	current
	238	i(@c.x1.xr5.xsky130_fd_pr__res_xhigh_po_0p35.c2[i])	current
	239	i(@c.x1.xr6.xsky130_fd_pr__res_xhigh_po_0p35.c1[i])	current
	240	i(@c.x1.xr6.xsky130_fd_pr__res_xhigh_po_0p35.c2[i])	current
	241	i(@c.x1.xr7.xsky130_fd_pr__res_xhigh_po_0p35.c1[i])	current
	242	i(@c.x1.xr7.xsky130_fd_pr__res_xhigh_po_0p35.c2[i])	current
	243	i(@c.x1.xr8.xsky130_fd_pr__res_xhigh_po_0p35.c1[i])	current
	244	i(@c.x1.xr8.xsky130_fd_pr__res_xhigh_po_0p35.c2[i])	current
	245	i(@c.x2.xr1.xsky130_fd_pr__res_xhigh_po_0p35.c1[i])	current
	246	i(@c.x2.xr1.xsky130_fd_pr__res_xhigh_po_0p35.c2[i])	current
	247	i(@c.x2.xr2.xsky130_fd_pr__res_xhigh_po_0p35.c1[i])	current
	248	i(@c.x2.xr2.xsky130_fd_pr__res_xhigh_po_0p35.c2[i])	current
	249	i(@c.x2.xr3.xsky130_fd_pr__res_xhigh_po_0p35.c1[i])	current
	250	i(@c.x2.xr3.xsky130_fd_pr__res_xhigh_po_0p35.c2[i])	current
	251	i(@c.x2.xr4.xsky130_fd_pr__res_xhigh_po_0p35.c1[i])	current
	252	i(@c.x2.xr4.xsky130_fd_pr__res_xhigh_po_0p35.c2[i])	current
	253	i(@c.x2.xr5.xsky130_fd_pr__res_xhigh_po_0p35.c1[i])	current
	254	i(@c.x2.xr5.xsky130_fd_pr__res_xhigh_po_0p35.c2[i])	current
	255	i(@c.x2.xr6.xsky130_fd_pr__res_xhigh_po_0p35.c1[i])	current
	256	i(@c.x2.xr6.xsky130_fd_pr__res_xhigh_po_0p35.c2[i])	current
	257	i(@c.x2.xr7.xsky130_fd_pr__res_xhigh_po_0p35.c1[i])	current
	258	i(@c.x2.xr7.xsky130_fd_pr__res_xhigh_po_0p35.c2[i])	current
	259	i(@c.x2.xr8.xsky130_fd_pr__res_xhigh_po_0p35.c1[i])	current
	260	i(@c.x2.xr8.xsky130_fd_pr__res_xhigh_po_0p35.c2[i])	current
	261	i(@c.x3.xr1.xsky130_fd_pr__res_xhigh_po_0p35.c1[i])	current
	262	i(@c.x3.xr1.xsky130_fd_pr__res_xhigh_po_0p35.c2[i])	current
	263	i(@c.x3.xr2.xsky130_fd_pr__res_xhigh_po_0p35.c1[i])	current
	264	i(@c.x3.xr2.xsky130_fd_pr__res_xhigh_po_0p35.c2[i])	current
	265	i(@c.x3.xr3.xsky130_fd_pr__res_xhigh_po_0p35.c1[i])	current
	266	i(@c.x3.xr3.xsky130_fd_pr__res_xhigh_po_0p35.c2[i])	current
	267	i(@c.x3.xr4.xsky130_fd_pr__res_xhigh_po_0p35.c1[i])	current
	268	i(@c.x3.xr4.xsky130_fd_pr__res_xhigh_po_0p35.c2[i])	current
	269	i(@c.x3.xr5.xsky130_fd_pr__res_xhigh_po_0p35.c1[i])	current
	270	i(@c.x3.xr5.xsky130_fd_pr__res_xhigh_po_0p35.c2[i])	current
	271	i(@c.x3.xr6.xsky130_fd_pr__res_xhigh_po_0p35.c1[i])	current
	272	i(@c.x3.xr6.xsky130_fd_pr__res_xhigh_po_0p35.c2[i])	current
	273	i(@c.x3.xr7.xsky130_fd_pr__res_xhigh_po_0p35.c1[i])	current
	274	i(@c.x3.xr7.xsky130_fd_pr__res_xhigh_po_0p35.c2[i])	current
	275	i(@c.x3.xr8.xsky130_fd_pr__res_xhigh_po_0p35.c1[i])	current
	276	i(@c.x3.xr8.xsky130_fd_pr__res_xhigh_po_0p35.c2[i])	current
	277	i(@c.x4.xr1.xsky130_fd_pr__res_xhigh_po_0p35.c1[i])	current
	278	i(@c.x4.xr1.xsky130_fd_pr__res_xhigh_po_0p35.c2[i])	current
	279	i(@c.x4.xr2.xsky130_fd_pr__res_xhigh_po_0p35.c1[i])	current
	280	i(@c.x4.xr2.xsky130_fd_pr__res_xhigh_po_0p35.c2[i])	current
	281	i(@c.x4.xr3.xsky130_fd_pr__res_xhigh_po_0p35.c1[i])	current
	282	i(@c.x4.xr3.xsky130_fd_pr__res_xhigh_po_0p35.c2[i])	current
	283	i(@c.x4.xr4.xsky130_fd_pr__res_xhigh_po_0p35.c1[i])	current
	284	i(@c.x4.xr4.xsky130_fd_pr__res_xhigh_po_0p35.c2[i])	current
	285	i(@c.x4.xr5.xsky130_fd_pr__res_xhigh_po_0p35.c1[i])	current
	286	i(@c.x4.xr5.xsky130_fd_pr__res_xhigh_po_0p35.c2[i])	current
	287	i(@c.x4.xr6.xsky130_fd_pr__res_xhigh_po_0p35.c1[i])	current
	288	i(@c.x4.xr6.xsky130_fd_pr__res_xhigh_po_0p35.c2[i])	current
	289	i(@c.x4.xr7.xsky130_fd_pr__res_xhigh_po_0p35.c1[i])	current
	290	i(@c.x4.xr7.xsky130_fd_pr__res_xhigh_po_0p35.c2[i])	current
	291	i(@c.x4.xr8.xsky130_fd_pr__res_xhigh_po_0p35.c1[i])	current
	292	i(@c.x4.xr8.xsky130_fd_pr__res_xhigh_po_0p35.c2[i])	current
	293	i(@c.x5.xr1.xsky130_fd_pr__res_xhigh_po_0p35.c1[i])	current
	294	i(@c.x5.xr1.xsky130_fd_pr__res_xhigh_po_0p35.c2[i])	current
	295	i(@c.x5.xr2.xsky130_fd_pr__res_xhigh_po_0p35.c1[i])	current
	296	i(@c.x5.xr2.xsky130_fd_pr__res_xhigh_po_0p35.c2[i])	current
	297	i(@c.x5.xr3.xsky130_fd_pr__res_xhigh_po_0p35.c1[i])	current
	298	i(@c.x5.xr3.xsky130_fd_pr__res_xhigh_po_0p35.c2[i])	current
	299	i(@c.x5.xr4.xsky130_fd_pr__res_xhigh_po_0p35.c1[i])	current
	300	i(@c.x5.xr4.xsky130_fd_pr__res_xhigh_po_0p35.c2[i])	current
	301	i(@c.x5.xr5.xsky130_fd_pr__res_xhigh_po_0p35.c1[i])	current
	302	i(@c.x5.xr5.xsky130_fd_pr__res_xhigh_po_0p35.c2[i])	current
	303	i(@c.x5.xr6.xsky130_fd_pr__res_xhigh_po_0p35.c1[i])	current
	304	i(@c.x5.xr6.xsky130_fd_pr__res_xhigh_po_0p35.c2[i])	current
	305	i(@c.x5.xr7.xsky130_fd_pr__res_xhigh_po_0p35.c1[i])	current
	306	i(@c.x5.xr7.xsky130_fd_pr__res_xhigh_po_0p35.c2[i])	current
	307	i(@c.x5.xr8.xsky130_fd_pr__res_xhigh_po_0p35.c1[i])	current
	308	i(@c.x5.xr8.xsky130_fd_pr__res_xhigh_po_0p35.c2[i])	current
	309	i(@c.x6.xr1.xsky130_fd_pr__res_xhigh_po_0p35.c1[i])	current
	310	i(@c.x6.xr1.xsky130_fd_pr__res_xhigh_po_0p35.c2[i])	current
	311	i(@c.x6.xr2.xsky130_fd_pr__res_xhigh_po_0p35.c1[i])	current
	312	i(@c.x6.xr2.xsky130_fd_pr__res_xhigh_po_0p35.c2[i])	current
	313	i(@c.x6.xr3.xsky130_fd_pr__res_xhigh_po_0p35.c1[i])	current
	314	i(@c.x6.xr3.xsky130_fd_pr__res_xhigh_po_0p35.c2[i])	current
	315	i(@c.x6.xr4.xsky130_fd_pr__res_xhigh_po_0p35.c1[i])	current
	316	i(@c.x6.xr4.xsky130_fd_pr__res_xhigh_po_0p35.c2[i])	current
	317	i(@c.x6.xr5.xsky130_fd_pr__res_xhigh_po_0p35.c1[i])	current
	318	i(@c.x6.xr5.xsky130_fd_pr__res_xhigh_po_0p35.c2[i])	current
	319	i(@c.x6.xr6.xsky130_fd_pr__res_xhigh_po_0p35.c1[i])	current
	320	i(@c.x6.xr6.xsky130_fd_pr__res_xhigh_po_0p35.c2[i])	current
	321	i(@c.x6.xr7.xsky130_fd_pr__res_xhigh_po_0p35.c1[i])	current
	322	i(@c.x6.xr7.xsky130_fd_pr__res_xhigh_po_0p35.c2[i])	current
	323	i(@c.x6.xr8.xsky130_fd_pr__res_xhigh_po_0p35.c1[i])	current
	324	i(@c.x6.xr8.xsky130_fd_pr__res_xhigh_po_0p35.c2[i])	current
	325	i(@c.x7.xr1.xsky130_fd_pr__res_xhigh_po_0p35.c1[i])	current
	326	i(@c.x7.xr1.xsky130_fd_pr__res_xhigh_po_0p35.c2[i])	current
	327	i(@c.x7.xr2.xsky130_fd_pr__res_xhigh_po_0p35.c1[i])	current
	328	i(@c.x7.xr2.xsky130_fd_pr__res_xhigh_po_0p35.c2[i])	current
	329	i(@c.x7.xr3.xsky130_fd_pr__res_xhigh_po_0p35.c1[i])	current
	330	i(@c.x7.xr3.xsky130_fd_pr__res_xhigh_po_0p35.c2[i])	current
	331	i(@c.x7.xr4.xsky130_fd_pr__res_xhigh_po_0p35.c1[i])	current
	332	i(@c.x7.xr4.xsky130_fd_pr__res_xhigh_po_0p35.c2[i])	current
	333	i(@c.x7.xr5.xsky130_fd_pr__res_xhigh_po_0p35.c1[i])	current
	334	i(@c.x7.xr5.xsky130_fd_pr__res_xhigh_po_0p35.c2[i])	current
	335	i(@c.x7.xr6.xsky130_fd_pr__res_xhigh_po_0p35.c1[i])	current
	336	i(@c.x7.xr6.xsky130_fd_pr__res_xhigh_po_0p35.c2[i])	current
	337	i(@c.x7.xr7.xsky130_fd_pr__res_xhigh_po_0p35.c1[i])	current
	338	i(@c.x7.xr7.xsky130_fd_pr__res_xhigh_po_0p35.c2[i])	current
	339	i(@c.x7.xr8.xsky130_fd_pr__res_xhigh_po_0p35.c1[i])	current
	340	i(@c.x7.xr8.xsky130_fd_pr__res_xhigh_po_0p35.c2[i])	current
	341	i(@c.x8.xr1.xsky130_fd_pr__res_xhigh_po_0p35.c1[i])	current
	342	i(@c.x8.xr1.xsky130_fd_pr__res_xhigh_po_0p35.c2[i])	current
	343	i(@c.x8.xr2.xsky130_fd_pr__res_xhigh_po_0p35.c1[i])	current
	344	i(@c.x8.xr2.xsky130_fd_pr__res_xhigh_po_0p35.c2[i])	current
	345	i(@c.x8.xr3.xsky130_fd_pr__res_xhigh_po_0p35.c1[i])	current
	346	i(@c.x8.xr3.xsky130_fd_pr__res_xhigh_po_0p35.c2[i])	current
	347	i(@c.x8.xr4.xsky130_fd_pr__res_xhigh_po_0p35.c1[i])	current
	348	i(@c.x8.xr4.xsky130_fd_pr__res_xhigh_po_0p35.c2[i])	current
	349	i(@c.x8.xr5.xsky130_fd_pr__res_xhigh_po_0p35.c1[i])	current
	350	i(@c.x8.xr5.xsky130_fd_pr__res_xhigh_po_0p35.c2[i])	current
	351	i(@c.x8.xr6.xsky130_fd_pr__res_xhigh_po_0p35.c1[i])	current
	352	i(@c.x8.xr6.xsky130_fd_pr__res_xhigh_po_0p35.c2[i])	current
	353	i(@c.x8.xr7.xsky130_fd_pr__res_xhigh_po_0p35.c1[i])	current
	354	i(@c.x8.xr7.xsky130_fd_pr__res_xhigh_po_0p35.c2[i])	current
	355	i(@c.x8.xr8.xsky130_fd_pr__res_xhigh_po_0p35.c1[i])	current
	356	i(@c.x8.xr8.xsky130_fd_pr__res_xhigh_po_0p35.c2[i])	current
	357	i(@c.x9.xr1.xsky130_fd_pr__res_xhigh_po_0p35.c1[i])	current
	358	i(@c.x9.xr1.xsky130_fd_pr__res_xhigh_po_0p35.c2[i])	current
	359	i(@c.x9.xr2.xsky130_fd_pr__res_xhigh_po_0p35.c1[i])	current
	360	i(@c.x9.xr2.xsky130_fd_pr__res_xhigh_po_0p35.c2[i])	current
	361	i(@c.x9.xr3.xsky130_fd_pr__res_xhigh_po_0p35.c1[i])	current
	362	i(@c.x9.xr3.xsky130_fd_pr__res_xhigh_po_0p35.c2[i])	current
	363	i(@c.x9.xr4.xsky130_fd_pr__res_xhigh_po_0p35.c1[i])	current
	364	i(@c.x9.xr4.xsky130_fd_pr__res_xhigh_po_0p35.c2[i])	current
	365	i(@c.x9.xr5.xsky130_fd_pr__res_xhigh_po_0p35.c1[i])	current
	366	i(@c.x9.xr5.xsky130_fd_pr__res_xhigh_po_0p35.c2[i])	current
	367	i(@c.x9.xr6.xsky130_fd_pr__res_xhigh_po_0p35.c1[i])	current
	368	i(@c.x9.xr6.xsky130_fd_pr__res_xhigh_po_0p35.c2[i])	current
	369	i(@c.x9.xr7.xsky130_fd_pr__res_xhigh_po_0p35.c1[i])	current
	370	i(@c.x9.xr7.xsky130_fd_pr__res_xhigh_po_0p35.c2[i])	current
	371	i(@c.x9.xr8.xsky130_fd_pr__res_xhigh_po_0p35.c1[i])	current
	372	i(@c.x9.xr8.xsky130_fd_pr__res_xhigh_po_0p35.c2[i])	current
	373	i(@c.x10.xr1.xsky130_fd_pr__res_xhigh_po_0p35.c1[i])	current
	374	i(@c.x10.xr1.xsky130_fd_pr__res_xhigh_po_0p35.c2[i])	current
	375	i(@c.x10.xr2.xsky130_fd_pr__res_xhigh_po_0p35.c1[i])	current
	376	i(@c.x10.xr2.xsky130_fd_pr__res_xhigh_po_0p35.c2[i])	current
	377	i(@c.x10.xr3.xsky130_fd_pr__res_xhigh_po_0p35.c1[i])	current
	378	i(@c.x10.xr3.xsky130_fd_pr__res_xhigh_po_0p35.c2[i])	current
	379	i(@c.x10.xr4.xsky130_fd_pr__res_xhigh_po_0p35.c1[i])	current
	380	i(@c.x10.xr4.xsky130_fd_pr__res_xhigh_po_0p35.c2[i])	current
	381	i(@c.x10.xr5.xsky130_fd_pr__res_xhigh_po_0p35.c1[i])	current
	382	i(@c.x10.xr5.xsky130_fd_pr__res_xhigh_po_0p35.c2[i])	current
	383	i(@c.x10.xr6.xsky130_fd_pr__res_xhigh_po_0p35.c1[i])	current
	384	i(@c.x10.xr6.xsky130_fd_pr__res_xhigh_po_0p35.c2[i])	current
	385	i(@c.x10.xr7.xsky130_fd_pr__res_xhigh_po_0p35.c1[i])	current
	386	i(@c.x10.xr7.xsky130_fd_pr__res_xhigh_po_0p35.c2[i])	current
	387	i(@c.x10.xr8.xsky130_fd_pr__res_xhigh_po_0p35.c1[i])	current
	388	i(@c.x10.xr8.xsky130_fd_pr__res_xhigh_po_0p35.c2[i])	current
	389	i(@c.x11.xr1.xsky130_fd_pr__res_xhigh_po_0p35.c1[i])	current
	390	i(@c.x11.xr1.xsky130_fd_pr__res_xhigh_po_0p35.c2[i])	current
	391	i(@c.x11.xr2.xsky130_fd_pr__res_xhigh_po_0p35.c1[i])	current
	392	i(@c.x11.xr2.xsky130_fd_pr__res_xhigh_po_0p35.c2[i])	current
	393	i(@c.x11.xr3.xsky130_fd_pr__res_xhigh_po_0p35.c1[i])	current
	394	i(@c.x11.xr3.xsky130_fd_pr__res_xhigh_po_0p35.c2[i])	current
	395	i(@c.x11.xr4.xsky130_fd_pr__res_xhigh_po_0p35.c1[i])	current
	396	i(@c.x11.xr4.xsky130_fd_pr__res_xhigh_po_0p35.c2[i])	current
	397	i(@c.x11.xr5.xsky130_fd_pr__res_xhigh_po_0p35.c1[i])	current
	398	i(@c.x11.xr5.xsky130_fd_pr__res_xhigh_po_0p35.c2[i])	current
	399	i(@c.x11.xr6.xsky130_fd_pr__res_xhigh_po_0p35.c1[i])	current
	400	i(@c.x11.xr6.xsky130_fd_pr__res_xhigh_po_0p35.c2[i])	current
	401	i(@c.x11.xr7.xsky130_fd_pr__res_xhigh_po_0p35.c1[i])	current
	402	i(@c.x11.xr7.xsky130_fd_pr__res_xhigh_po_0p35.c2[i])	current
	403	i(@c.x11.xr8.xsky130_fd_pr__res_xhigh_po_0p35.c1[i])	current
	404	i(@c.x11.xr8.xsky130_fd_pr__res_xhigh_po_0p35.c2[i])	current
	405	i(@c.x12.xr1.xsky130_fd_pr__res_xhigh_po_0p35.c1[i])	current
	406	i(@c.x12.xr1.xsky130_fd_pr__res_xhigh_po_0p35.c2[i])	current
	407	i(@c.x12.xr2.xsky130_fd_pr__res_xhigh_po_0p35.c1[i])	current
	408	i(@c.x12.xr2.xsky130_fd_pr__res_xhigh_po_0p35.c2[i])	current
	409	i(@c.x12.xr3.xsky130_fd_pr__res_xhigh_po_0p35.c1[i])	current
	410	i(@c.x12.xr3.xsky130_fd_pr__res_xhigh_po_0p35.c2[i])	current
	411	i(@c.x12.xr4.xsky130_fd_pr__res_xhigh_po_0p35.c1[i])	current
	412	i(@c.x12.xr4.xsky130_fd_pr__res_xhigh_po_0p35.c2[i])	current
	413	i(@c.x12.xr5.xsky130_fd_pr__res_xhigh_po_0p35.c1[i])	current
	414	i(@c.x12.xr5.xsky130_fd_pr__res_xhigh_po_0p35.c2[i])	current
	415	i(@c.x12.xr6.xsky130_fd_pr__res_xhigh_po_0p35.c1[i])	current
	416	i(@c.x12.xr6.xsky130_fd_pr__res_xhigh_po_0p35.c2[i])	current
	417	i(@c.x12.xr7.xsky130_fd_pr__res_xhigh_po_0p35.c1[i])	current
	418	i(@c.x12.xr7.xsky130_fd_pr__res_xhigh_po_0p35.c2[i])	current
	419	i(@c.x12.xr8.xsky130_fd_pr__res_xhigh_po_0p35.c1[i])	current
	420	i(@c.x12.xr8.xsky130_fd_pr__res_xhigh_po_0p35.c2[i])	current
	421	i(@c.x13.xr1.xsky130_fd_pr__res_xhigh_po_0p35.c1[i])	current
	422	i(@c.x13.xr1.xsky130_fd_pr__res_xhigh_po_0p35.c2[i])	current
	423	i(@c.x13.xr2.xsky130_fd_pr__res_xhigh_po_0p35.c1[i])	current
	424	i(@c.x13.xr2.xsky130_fd_pr__res_xhigh_po_0p35.c2[i])	current
	425	i(@c.x13.xr3.xsky130_fd_pr__res_xhigh_po_0p35.c1[i])	current
	426	i(@c.x13.xr3.xsky130_fd_pr__res_xhigh_po_0p35.c2[i])	current
	427	i(@c.x13.xr4.xsky130_fd_pr__res_xhigh_po_0p35.c1[i])	current
	428	i(@c.x13.xr4.xsky130_fd_pr__res_xhigh_po_0p35.c2[i])	current
	429	i(@c.x13.xr5.xsky130_fd_pr__res_xhigh_po_0p35.c1[i])	current
	430	i(@c.x13.xr5.xsky130_fd_pr__res_xhigh_po_0p35.c2[i])	current
	431	i(@c.x13.xr6.xsky130_fd_pr__res_xhigh_po_0p35.c1[i])	current
	432	i(@c.x13.xr6.xsky130_fd_pr__res_xhigh_po_0p35.c2[i])	current
	433	i(@c.x13.xr7.xsky130_fd_pr__res_xhigh_po_0p35.c1[i])	current
	434	i(@c.x13.xr7.xsky130_fd_pr__res_xhigh_po_0p35.c2[i])	current
	435	i(@c.x13.xr8.xsky130_fd_pr__res_xhigh_po_0p35.c1[i])	current
	436	i(@c.x13.xr8.xsky130_fd_pr__res_xhigh_po_0p35.c2[i])	current
	437	i(@c.x14.xr1.xsky130_fd_pr__res_xhigh_po_0p35.c1[i])	current
	438	i(@c.x14.xr1.xsky130_fd_pr__res_xhigh_po_0p35.c2[i])	current
	439	i(@c.x14.xr2.xsky130_fd_pr__res_xhigh_po_0p35.c1[i])	current
	440	i(@c.x14.xr2.xsky130_fd_pr__res_xhigh_po_0p35.c2[i])	current
	441	i(@c.x14.xr3.xsky130_fd_pr__res_xhigh_po_0p35.c1[i])	current
	442	i(@c.x14.xr3.xsky130_fd_pr__res_xhigh_po_0p35.c2[i])	current
	443	i(@c.x14.xr4.xsky130_fd_pr__res_xhigh_po_0p35.c1[i])	current
	444	i(@c.x14.xr4.xsky130_fd_pr__res_xhigh_po_0p35.c2[i])	current
	445	i(@c.x14.xr5.xsky130_fd_pr__res_xhigh_po_0p35.c1[i])	current
	446	i(@c.x14.xr5.xsky130_fd_pr__res_xhigh_po_0p35.c2[i])	current
	447	i(@c.x14.xr6.xsky130_fd_pr__res_xhigh_po_0p35.c1[i])	current